ITEM: TIMESTEP
0
ITEM: NUMBER OF ATOMS
32
ITEM: BOX BOUNDS pp ff ff
0.0 7.823412
0.0 20
0.0 20
ITEM: ATOMS id type x y z 
1	H	-0.177654	0.032244	-1.096941
2	H	-0.092668	1.031118	0.403637
3	C	0	0	0
4	O	0.639658	-2.491967	-0.891961
5	C	1.392075	-0.577668	0.316255
6	H	1.491033	-0.571125	1.42431
7	C	1.502051	-2.023944	-0.158647
8	H	1.762192	-4.771721	0.145978
9	H	2.291188	1.384177	0.082358
10	H	2.332033	0.386875	-1.415253
11	C	2.459538	0.357094	-0.310652
12	N	2.52679	-2.814978	0.263266
13	C	2.659236	-4.192195	-0.159268
14	H	2.774984	-4.240123	-1.26301
15	H	3.225752	-2.442952	0.921983
16	H	3.555142	-4.648478	0.312696
17	H	3.734052	-0.032244	1.096941
18	H	3.819038	-1.031118	-0.403637
19	C	3.911706	0	0
20	O	4.551364	2.491967	0.891961
21	C	5.303781	0.577668	-0.316255
22	H	5.402739	0.571125	-1.42431
23	C	5.413757	2.023944	0.158647
24	H	5.673898	4.771721	-0.145978
25	H	6.202894	-1.384177	-0.082358
26	H	6.243739	-0.386875	1.415253
27	C	6.371244	-0.357094	0.310652
28	N	6.438496	2.814978	-0.263266
29	C	6.570942	4.192195	0.159268
30	H	6.68669	4.240123	1.26301
31	H	7.137458	2.442952	-0.921983
32	H	7.466848	4.648478	-0.312696