ITEM: TIMESTEP
0
ITEM: NUMBER OF ATOMS
16384
ITEM: BOX BOUNDS pp ff ff
0.0 59.3352013
0.0 59.3352013
0.0 59.3352013
ITEM: ATOMS id type x y z
1 1 0.0 0.0 0.0
2 1 1.85423 1.85423 0.0
3 1 1.85423 0.0 1.85423
4 1 0.0 1.85423 1.85423
5 1 3.7084501 0.0 0.0
6 1 5.5626798 1.85423 0.0
7 1 5.5626798 0.0 1.85423
8 1 3.7084501 1.85423 1.85423
9 1 7.4169002 0.0 0.0
10 1 9.2711201 1.85423 0.0
11 1 9.2711201 0.0 1.85423
12 1 7.4169002 1.85423 1.85423
13 1 11.1253996 0.0 0.0
14 1 12.9796 1.85423 0.0
15 1 12.9796 0.0 1.85423
16 1 11.1253996 1.85423 1.85423
17 1 14.8338003 0.0 0.0
18 1 16.6879998 1.85423 0.0
19 1 16.6879998 0.0 1.85423
20 1 14.8338003 1.85423 1.85423
21 1 18.5422001 0.0 0.0
22 1 20.3964996 1.85423 0.0
23 1 20.3964996 0.0 1.85423
24 1 18.5422001 1.85423 1.85423
25 1 22.2507 0.0 0.0
26 1 24.1049004 1.85423 0.0
27 1 24.1049004 0.0 1.85423
28 1 22.2507 1.85423 1.85423
29 1 25.9592 0.0 0.0
30 1 27.8134003 1.85423 0.0
31 1 27.8134003 0.0 1.85423
32 1 25.9592 1.85423 1.85423
33 1 29.6676007 0.0 0.0
34 1 31.5217991 1.85423 0.0
35 1 31.5217991 0.0 1.85423
36 1 29.6676007 1.85423 1.85423
37 1 33.3759995 0.0 0.0
38 1 35.2303009 1.85423 0.0
39 1 35.2303009 0.0 1.85423
40 1 33.3759995 1.85423 1.85423
41 1 37.0844994 0.0 0.0
42 1 38.9387016 1.85423 0.0
43 1 38.9387016 0.0 1.85423
44 1 37.0844994 1.85423 1.85423
45 1 40.7929001 0.0 0.0
46 1 42.6472016 1.85423 0.0
47 1 42.6472016 0.0 1.85423
48 1 40.7929001 1.85423 1.85423
49 1 44.5014 0.0 0.0
50 1 46.3555985 1.85423 0.0
51 1 46.3555985 0.0 1.85423
52 1 44.5014 1.85423 1.85423
53 1 48.2098999 0.0 0.0
54 1 50.0640984 1.85423 0.0
55 1 50.0640984 0.0 1.85423
56 1 48.2098999 1.85423 1.85423
57 1 51.9183006 0.0 0.0
58 1 53.7724991 1.85423 0.0
59 1 53.7724991 0.0 1.85423
60 1 51.9183006 1.85423 1.85423
61 1 55.6268006 0.0 0.0
62 1 57.480999 1.85423 0.0
63 1 57.480999 0.0 1.85423
64 1 55.6268006 1.85423 1.85423
65 1 0.0 3.7084501 0.0
66 1 1.85423 5.5626798 0.0
67 1 1.85423 3.7084501 1.85423
68 1 0.0 5.5626798 1.85423
69 1 3.7084501 3.7084501 0.0
70 1 5.5626798 5.5626798 0.0
71 1 5.5626798 3.7084501 1.85423
72 1 3.7084501 5.5626798 1.85423
73 1 7.4169002 3.7084501 0.0
74 1 9.2711201 5.5626798 0.0
75 1 9.2711201 3.7084501 1.85423
76 1 7.4169002 5.5626798 1.85423
77 1 11.1253996 3.7084501 0.0
78 1 12.9796 5.5626798 0.0
79 1 12.9796 3.7084501 1.85423
80 1 11.1253996 5.5626798 1.85423
81 1 14.8338003 3.7084501 0.0
82 1 16.6879998 5.5626798 0.0
83 1 16.6879998 3.7084501 1.85423
84 1 14.8338003 5.5626798 1.85423
85 1 18.5422001 3.7084501 0.0
86 1 20.3964996 5.5626798 0.0
87 1 20.3964996 3.7084501 1.85423
88 1 18.5422001 5.5626798 1.85423
89 1 22.2507 3.7084501 0.0
90 1 24.1049004 5.5626798 0.0
91 1 24.1049004 3.7084501 1.85423
92 1 22.2507 5.5626798 1.85423
93 1 25.9592 3.7084501 0.0
94 1 27.8134003 5.5626798 0.0
95 1 27.8134003 3.7084501 1.85423
96 1 25.9592 5.5626798 1.85423
97 1 29.6676007 3.7084501 0.0
98 1 31.5217991 5.5626798 0.0
99 1 31.5217991 3.7084501 1.85423
100 1 29.6676007 5.5626798 1.85423
101 1 33.3759995 3.7084501 0.0
102 1 35.2303009 5.5626798 0.0
103 1 35.2303009 3.7084501 1.85423
104 1 33.3759995 5.5626798 1.85423
105 1 37.0844994 3.7084501 0.0
106 1 38.9387016 5.5626798 0.0
107 1 38.9387016 3.7084501 1.85423
108 1 37.0844994 5.5626798 1.85423
109 1 40.7929001 3.7084501 0.0
110 1 42.6472016 5.5626798 0.0
111 1 42.6472016 3.7084501 1.85423
112 1 40.7929001 5.5626798 1.85423
113 1 44.5014 3.7084501 0.0
114 1 46.3555985 5.5626798 0.0
115 1 46.3555985 3.7084501 1.85423
116 1 44.5014 5.5626798 1.85423
117 1 48.2098999 3.7084501 0.0
118 1 50.0640984 5.5626798 0.0
119 1 50.0640984 3.7084501 1.85423
120 1 48.2098999 5.5626798 1.85423
121 1 51.9183006 3.7084501 0.0
122 1 53.7724991 5.5626798 0.0
123 1 53.7724991 3.7084501 1.85423
124 1 51.9183006 5.5626798 1.85423
125 1 55.6268006 3.7084501 0.0
126 1 57.480999 5.5626798 0.0
127 1 57.480999 3.7084501 1.85423
128 1 55.6268006 5.5626798 1.85423
129 1 0.0 7.4169002 0.0
130 1 1.85423 9.2711201 0.0
131 1 1.85423 7.4169002 1.85423
132 1 0.0 9.2711201 1.85423
133 1 3.7084501 7.4169002 0.0
134 1 5.5626798 9.2711201 0.0
135 1 5.5626798 7.4169002 1.85423
136 1 3.7084501 9.2711201 1.85423
137 1 7.4169002 7.4169002 0.0
138 1 9.2711201 9.2711201 0.0
139 1 9.2711201 7.4169002 1.85423
140 1 7.4169002 9.2711201 1.85423
141 1 11.1253996 7.4169002 0.0
142 1 12.9796 9.2711201 0.0
143 1 12.9796 7.4169002 1.85423
144 1 11.1253996 9.2711201 1.85423
145 1 14.8338003 7.4169002 0.0
146 1 16.6879998 9.2711201 0.0
147 1 16.6879998 7.4169002 1.85423
148 1 14.8338003 9.2711201 1.85423
149 1 18.5422001 7.4169002 0.0
150 1 20.3964996 9.2711201 0.0
151 1 20.3964996 7.4169002 1.85423
152 1 18.5422001 9.2711201 1.85423
153 1 22.2507 7.4169002 0.0
154 1 24.1049004 9.2711201 0.0
155 1 24.1049004 7.4169002 1.85423
156 1 22.2507 9.2711201 1.85423
157 1 25.9592 7.4169002 0.0
158 1 27.8134003 9.2711201 0.0
159 1 27.8134003 7.4169002 1.85423
160 1 25.9592 9.2711201 1.85423
161 1 29.6676007 7.4169002 0.0
162 1 31.5217991 9.2711201 0.0
163 1 31.5217991 7.4169002 1.85423
164 1 29.6676007 9.2711201 1.85423
165 1 33.3759995 7.4169002 0.0
166 1 35.2303009 9.2711201 0.0
167 1 35.2303009 7.4169002 1.85423
168 1 33.3759995 9.2711201 1.85423
169 1 37.0844994 7.4169002 0.0
170 1 38.9387016 9.2711201 0.0
171 1 38.9387016 7.4169002 1.85423
172 1 37.0844994 9.2711201 1.85423
173 1 40.7929001 7.4169002 0.0
174 1 42.6472016 9.2711201 0.0
175 1 42.6472016 7.4169002 1.85423
176 1 40.7929001 9.2711201 1.85423
177 1 44.5014 7.4169002 0.0
178 1 46.3555985 9.2711201 0.0
179 1 46.3555985 7.4169002 1.85423
180 1 44.5014 9.2711201 1.85423
181 1 48.2098999 7.4169002 0.0
182 1 50.0640984 9.2711201 0.0
183 1 50.0640984 7.4169002 1.85423
184 1 48.2098999 9.2711201 1.85423
185 1 51.9183006 7.4169002 0.0
186 1 53.7724991 9.2711201 0.0
187 1 53.7724991 7.4169002 1.85423
188 1 51.9183006 9.2711201 1.85423
189 1 55.6268006 7.4169002 0.0
190 1 57.480999 9.2711201 0.0
191 1 57.480999 7.4169002 1.85423
192 1 55.6268006 9.2711201 1.85423
193 1 0.0 11.1253996 0.0
194 1 1.85423 12.9796 0.0
195 1 1.85423 11.1253996 1.85423
196 1 0.0 12.9796 1.85423
197 1 3.7084501 11.1253996 0.0
198 1 5.5626798 12.9796 0.0
199 1 5.5626798 11.1253996 1.85423
200 1 3.7084501 12.9796 1.85423
201 1 7.4169002 11.1253996 0.0
202 1 9.2711201 12.9796 0.0
203 1 9.2711201 11.1253996 1.85423
204 1 7.4169002 12.9796 1.85423
205 1 11.1253996 11.1253996 0.0
206 1 12.9796 12.9796 0.0
207 1 12.9796 11.1253996 1.85423
208 1 11.1253996 12.9796 1.85423
209 1 14.8338003 11.1253996 0.0
210 1 16.6879998 12.9796 0.0
211 1 16.6879998 11.1253996 1.85423
212 1 14.8338003 12.9796 1.85423
213 1 18.5422001 11.1253996 0.0
214 1 20.3964996 12.9796 0.0
215 1 20.3964996 11.1253996 1.85423
216 1 18.5422001 12.9796 1.85423
217 1 22.2507 11.1253996 0.0
218 1 24.1049004 12.9796 0.0
219 1 24.1049004 11.1253996 1.85423
220 1 22.2507 12.9796 1.85423
221 1 25.9592 11.1253996 0.0
222 1 27.8134003 12.9796 0.0
223 1 27.8134003 11.1253996 1.85423
224 1 25.9592 12.9796 1.85423
225 1 29.6676007 11.1253996 0.0
226 1 31.5217991 12.9796 0.0
227 1 31.5217991 11.1253996 1.85423
228 1 29.6676007 12.9796 1.85423
229 1 33.3759995 11.1253996 0.0
230 1 35.2303009 12.9796 0.0
231 1 35.2303009 11.1253996 1.85423
232 1 33.3759995 12.9796 1.85423
233 1 37.0844994 11.1253996 0.0
234 1 38.9387016 12.9796 0.0
235 1 38.9387016 11.1253996 1.85423
236 1 37.0844994 12.9796 1.85423
237 1 40.7929001 11.1253996 0.0
238 1 42.6472016 12.9796 0.0
239 1 42.6472016 11.1253996 1.85423
240 1 40.7929001 12.9796 1.85423
241 1 44.5014 11.1253996 0.0
242 1 46.3555985 12.9796 0.0
243 1 46.3555985 11.1253996 1.85423
244 1 44.5014 12.9796 1.85423
245 1 48.2098999 11.1253996 0.0
246 1 50.0640984 12.9796 0.0
247 1 50.0640984 11.1253996 1.85423
248 1 48.2098999 12.9796 1.85423
249 1 51.9183006 11.1253996 0.0
250 1 53.7724991 12.9796 0.0
251 1 53.7724991 11.1253996 1.85423
252 1 51.9183006 12.9796 1.85423
253 1 55.6268006 11.1253996 0.0
254 1 57.480999 12.9796 0.0
255 1 57.480999 11.1253996 1.85423
256 1 55.6268006 12.9796 1.85423
257 1 0.0 14.8338003 0.0
258 1 1.85423 16.6879998 0.0
259 1 1.85423 14.8338003 1.85423
260 1 0.0 16.6879998 1.85423
261 1 3.7084501 14.8338003 0.0
262 1 5.5626798 16.6879998 0.0
263 1 5.5626798 14.8338003 1.85423
264 1 3.7084501 16.6879998 1.85423
265 1 7.4169002 14.8338003 0.0
266 1 9.2711201 16.6879998 0.0
267 1 9.2711201 14.8338003 1.85423
268 1 7.4169002 16.6879998 1.85423
269 1 11.1253996 14.8338003 0.0
270 1 12.9796 16.6879998 0.0
271 1 12.9796 14.8338003 1.85423
272 1 11.1253996 16.6879998 1.85423
273 1 14.8338003 14.8338003 0.0
274 1 16.6879998 16.6879998 0.0
275 1 16.6879998 14.8338003 1.85423
276 1 14.8338003 16.6879998 1.85423
277 1 18.5422001 14.8338003 0.0
278 1 20.3964996 16.6879998 0.0
279 1 20.3964996 14.8338003 1.85423
280 1 18.5422001 16.6879998 1.85423
281 1 22.2507 14.8338003 0.0
282 1 24.1049004 16.6879998 0.0
283 1 24.1049004 14.8338003 1.85423
284 1 22.2507 16.6879998 1.85423
285 1 25.9592 14.8338003 0.0
286 1 27.8134003 16.6879998 0.0
287 1 27.8134003 14.8338003 1.85423
288 1 25.9592 16.6879998 1.85423
289 1 29.6676007 14.8338003 0.0
290 1 31.5217991 16.6879998 0.0
291 1 31.5217991 14.8338003 1.85423
292 1 29.6676007 16.6879998 1.85423
293 1 33.3759995 14.8338003 0.0
294 1 35.2303009 16.6879998 0.0
295 1 35.2303009 14.8338003 1.85423
296 1 33.3759995 16.6879998 1.85423
297 1 37.0844994 14.8338003 0.0
298 1 38.9387016 16.6879998 0.0
299 1 38.9387016 14.8338003 1.85423
300 1 37.0844994 16.6879998 1.85423
301 1 40.7929001 14.8338003 0.0
302 1 42.6472016 16.6879998 0.0
303 1 42.6472016 14.8338003 1.85423
304 1 40.7929001 16.6879998 1.85423
305 1 44.5014 14.8338003 0.0
306 1 46.3555985 16.6879998 0.0
307 1 46.3555985 14.8338003 1.85423
308 1 44.5014 16.6879998 1.85423
309 1 48.2098999 14.8338003 0.0
310 1 50.0640984 16.6879998 0.0
311 1 50.0640984 14.8338003 1.85423
312 1 48.2098999 16.6879998 1.85423
313 1 51.9183006 14.8338003 0.0
314 1 53.7724991 16.6879998 0.0
315 1 53.7724991 14.8338003 1.85423
316 1 51.9183006 16.6879998 1.85423
317 1 55.6268006 14.8338003 0.0
318 1 57.480999 16.6879998 0.0
319 1 57.480999 14.8338003 1.85423
320 1 55.6268006 16.6879998 1.85423
321 1 0.0 18.5422001 0.0
322 1 1.85423 20.3964996 0.0
323 1 1.85423 18.5422001 1.85423
324 1 0.0 20.3964996 1.85423
325 1 3.7084501 18.5422001 0.0
326 1 5.5626798 20.3964996 0.0
327 1 5.5626798 18.5422001 1.85423
328 1 3.7084501 20.3964996 1.85423
329 1 7.4169002 18.5422001 0.0
330 1 9.2711201 20.3964996 0.0
331 1 9.2711201 18.5422001 1.85423
332 1 7.4169002 20.3964996 1.85423
333 1 11.1253996 18.5422001 0.0
334 1 12.9796 20.3964996 0.0
335 1 12.9796 18.5422001 1.85423
336 1 11.1253996 20.3964996 1.85423
337 1 14.8338003 18.5422001 0.0
338 1 16.6879998 20.3964996 0.0
339 1 16.6879998 18.5422001 1.85423
340 1 14.8338003 20.3964996 1.85423
341 1 18.5422001 18.5422001 0.0
342 1 20.3964996 20.3964996 0.0
343 1 20.3964996 18.5422001 1.85423
344 1 18.5422001 20.3964996 1.85423
345 1 22.2507 18.5422001 0.0
346 1 24.1049004 20.3964996 0.0
347 1 24.1049004 18.5422001 1.85423
348 1 22.2507 20.3964996 1.85423
349 1 25.9592 18.5422001 0.0
350 1 27.8134003 20.3964996 0.0
351 1 27.8134003 18.5422001 1.85423
352 1 25.9592 20.3964996 1.85423
353 1 29.6676007 18.5422001 0.0
354 1 31.5217991 20.3964996 0.0
355 1 31.5217991 18.5422001 1.85423
356 1 29.6676007 20.3964996 1.85423
357 1 33.3759995 18.5422001 0.0
358 1 35.2303009 20.3964996 0.0
359 1 35.2303009 18.5422001 1.85423
360 1 33.3759995 20.3964996 1.85423
361 1 37.0844994 18.5422001 0.0
362 1 38.9387016 20.3964996 0.0
363 1 38.9387016 18.5422001 1.85423
364 1 37.0844994 20.3964996 1.85423
365 1 40.7929001 18.5422001 0.0
366 1 42.6472016 20.3964996 0.0
367 1 42.6472016 18.5422001 1.85423
368 1 40.7929001 20.3964996 1.85423
369 1 44.5014 18.5422001 0.0
370 1 46.3555985 20.3964996 0.0
371 1 46.3555985 18.5422001 1.85423
372 1 44.5014 20.3964996 1.85423
373 1 48.2098999 18.5422001 0.0
374 1 50.0640984 20.3964996 0.0
375 1 50.0640984 18.5422001 1.85423
376 1 48.2098999 20.3964996 1.85423
377 1 51.9183006 18.5422001 0.0
378 1 53.7724991 20.3964996 0.0
379 1 53.7724991 18.5422001 1.85423
380 1 51.9183006 20.3964996 1.85423
381 1 55.6268006 18.5422001 0.0
382 1 57.480999 20.3964996 0.0
383 1 57.480999 18.5422001 1.85423
384 1 55.6268006 20.3964996 1.85423
385 1 0.0 22.2507 0.0
386 1 1.85423 24.1049004 0.0
387 1 1.85423 22.2507 1.85423
388 1 0.0 24.1049004 1.85423
389 1 3.7084501 22.2507 0.0
390 1 5.5626798 24.1049004 0.0
391 1 5.5626798 22.2507 1.85423
392 1 3.7084501 24.1049004 1.85423
393 1 7.4169002 22.2507 0.0
394 1 9.2711201 24.1049004 0.0
395 1 9.2711201 22.2507 1.85423
396 1 7.4169002 24.1049004 1.85423
397 1 11.1253996 22.2507 0.0
398 1 12.9796 24.1049004 0.0
399 1 12.9796 22.2507 1.85423
400 1 11.1253996 24.1049004 1.85423
401 1 14.8338003 22.2507 0.0
402 1 16.6879998 24.1049004 0.0
403 1 16.6879998 22.2507 1.85423
404 1 14.8338003 24.1049004 1.85423
405 1 18.5422001 22.2507 0.0
406 1 20.3964996 24.1049004 0.0
407 1 20.3964996 22.2507 1.85423
408 1 18.5422001 24.1049004 1.85423
409 1 22.2507 22.2507 0.0
410 1 24.1049004 24.1049004 0.0
411 1 24.1049004 22.2507 1.85423
412 1 22.2507 24.1049004 1.85423
413 1 25.9592 22.2507 0.0
414 1 27.8134003 24.1049004 0.0
415 1 27.8134003 22.2507 1.85423
416 1 25.9592 24.1049004 1.85423
417 1 29.6676007 22.2507 0.0
418 1 31.5217991 24.1049004 0.0
419 1 31.5217991 22.2507 1.85423
420 1 29.6676007 24.1049004 1.85423
421 1 33.3759995 22.2507 0.0
422 1 35.2303009 24.1049004 0.0
423 1 35.2303009 22.2507 1.85423
424 1 33.3759995 24.1049004 1.85423
425 1 37.0844994 22.2507 0.0
426 1 38.9387016 24.1049004 0.0
427 1 38.9387016 22.2507 1.85423
428 1 37.0844994 24.1049004 1.85423
429 1 40.7929001 22.2507 0.0
430 1 42.6472016 24.1049004 0.0
431 1 42.6472016 22.2507 1.85423
432 1 40.7929001 24.1049004 1.85423
433 1 44.5014 22.2507 0.0
434 1 46.3555985 24.1049004 0.0
435 1 46.3555985 22.2507 1.85423
436 1 44.5014 24.1049004 1.85423
437 1 48.2098999 22.2507 0.0
438 1 50.0640984 24.1049004 0.0
439 1 50.0640984 22.2507 1.85423
440 1 48.2098999 24.1049004 1.85423
441 1 51.9183006 22.2507 0.0
442 1 53.7724991 24.1049004 0.0
443 1 53.7724991 22.2507 1.85423
444 1 51.9183006 24.1049004 1.85423
445 1 55.6268006 22.2507 0.0
446 1 57.480999 24.1049004 0.0
447 1 57.480999 22.2507 1.85423
448 1 55.6268006 24.1049004 1.85423
449 1 0.0 25.9592 0.0
450 1 1.85423 27.8134003 0.0
451 1 1.85423 25.9592 1.85423
452 1 0.0 27.8134003 1.85423
453 1 3.7084501 25.9592 0.0
454 1 5.5626798 27.8134003 0.0
455 1 5.5626798 25.9592 1.85423
456 1 3.7084501 27.8134003 1.85423
457 1 7.4169002 25.9592 0.0
458 1 9.2711201 27.8134003 0.0
459 1 9.2711201 25.9592 1.85423
460 1 7.4169002 27.8134003 1.85423
461 1 11.1253996 25.9592 0.0
462 1 12.9796 27.8134003 0.0
463 1 12.9796 25.9592 1.85423
464 1 11.1253996 27.8134003 1.85423
465 1 14.8338003 25.9592 0.0
466 1 16.6879998 27.8134003 0.0
467 1 16.6879998 25.9592 1.85423
468 1 14.8338003 27.8134003 1.85423
469 1 18.5422001 25.9592 0.0
470 1 20.3964996 27.8134003 0.0
471 1 20.3964996 25.9592 1.85423
472 1 18.5422001 27.8134003 1.85423
473 1 22.2507 25.9592 0.0
474 1 24.1049004 27.8134003 0.0
475 1 24.1049004 25.9592 1.85423
476 1 22.2507 27.8134003 1.85423
477 1 25.9592 25.9592 0.0
478 1 27.8134003 27.8134003 0.0
479 1 27.8134003 25.9592 1.85423
480 1 25.9592 27.8134003 1.85423
481 1 29.6676007 25.9592 0.0
482 1 31.5217991 27.8134003 0.0
483 1 31.5217991 25.9592 1.85423
484 1 29.6676007 27.8134003 1.85423
485 1 33.3759995 25.9592 0.0
486 1 35.2303009 27.8134003 0.0
487 1 35.2303009 25.9592 1.85423
488 1 33.3759995 27.8134003 1.85423
489 1 37.0844994 25.9592 0.0
490 1 38.9387016 27.8134003 0.0
491 1 38.9387016 25.9592 1.85423
492 1 37.0844994 27.8134003 1.85423
493 1 40.7929001 25.9592 0.0
494 1 42.6472016 27.8134003 0.0
495 1 42.6472016 25.9592 1.85423
496 1 40.7929001 27.8134003 1.85423
497 1 44.5014 25.9592 0.0
498 1 46.3555985 27.8134003 0.0
499 1 46.3555985 25.9592 1.85423
500 1 44.5014 27.8134003 1.85423
501 1 48.2098999 25.9592 0.0
502 1 50.0640984 27.8134003 0.0
503 1 50.0640984 25.9592 1.85423
504 1 48.2098999 27.8134003 1.85423
505 1 51.9183006 25.9592 0.0
506 1 53.7724991 27.8134003 0.0
507 1 53.7724991 25.9592 1.85423
508 1 51.9183006 27.8134003 1.85423
509 1 55.6268006 25.9592 0.0
510 1 57.480999 27.8134003 0.0
511 1 57.480999 25.9592 1.85423
512 1 55.6268006 27.8134003 1.85423
513 1 0.0 29.6676007 0.0
514 1 1.85423 31.5217991 0.0
515 1 1.85423 29.6676007 1.85423
516 1 0.0 31.5217991 1.85423
517 1 3.7084501 29.6676007 0.0
518 1 5.5626798 31.5217991 0.0
519 1 5.5626798 29.6676007 1.85423
520 1 3.7084501 31.5217991 1.85423
521 1 7.4169002 29.6676007 0.0
522 1 9.2711201 31.5217991 0.0
523 1 9.2711201 29.6676007 1.85423
524 1 7.4169002 31.5217991 1.85423
525 1 11.1253996 29.6676007 0.0
526 1 12.9796 31.5217991 0.0
527 1 12.9796 29.6676007 1.85423
528 1 11.1253996 31.5217991 1.85423
529 1 14.8338003 29.6676007 0.0
530 1 16.6879998 31.5217991 0.0
531 1 16.6879998 29.6676007 1.85423
532 1 14.8338003 31.5217991 1.85423
533 1 18.5422001 29.6676007 0.0
534 1 20.3964996 31.5217991 0.0
535 1 20.3964996 29.6676007 1.85423
536 1 18.5422001 31.5217991 1.85423
537 1 22.2507 29.6676007 0.0
538 1 24.1049004 31.5217991 0.0
539 1 24.1049004 29.6676007 1.85423
540 1 22.2507 31.5217991 1.85423
541 1 25.9592 29.6676007 0.0
542 1 27.8134003 31.5217991 0.0
543 1 27.8134003 29.6676007 1.85423
544 1 25.9592 31.5217991 1.85423
545 1 29.6676007 29.6676007 0.0
546 1 31.5217991 31.5217991 0.0
547 1 31.5217991 29.6676007 1.85423
548 1 29.6676007 31.5217991 1.85423
549 1 33.3759995 29.6676007 0.0
550 1 35.2303009 31.5217991 0.0
551 1 35.2303009 29.6676007 1.85423
552 1 33.3759995 31.5217991 1.85423
553 1 37.0844994 29.6676007 0.0
554 1 38.9387016 31.5217991 0.0
555 1 38.9387016 29.6676007 1.85423
556 1 37.0844994 31.5217991 1.85423
557 1 40.7929001 29.6676007 0.0
558 1 42.6472016 31.5217991 0.0
559 1 42.6472016 29.6676007 1.85423
560 1 40.7929001 31.5217991 1.85423
561 1 44.5014 29.6676007 0.0
562 1 46.3555985 31.5217991 0.0
563 1 46.3555985 29.6676007 1.85423
564 1 44.5014 31.5217991 1.85423
565 1 48.2098999 29.6676007 0.0
566 1 50.0640984 31.5217991 0.0
567 1 50.0640984 29.6676007 1.85423
568 1 48.2098999 31.5217991 1.85423
569 1 51.9183006 29.6676007 0.0
570 1 53.7724991 31.5217991 0.0
571 1 53.7724991 29.6676007 1.85423
572 1 51.9183006 31.5217991 1.85423
573 1 55.6268006 29.6676007 0.0
574 1 57.480999 31.5217991 0.0
575 1 57.480999 29.6676007 1.85423
576 1 55.6268006 31.5217991 1.85423
577 1 0.0 33.3759995 0.0
578 1 1.85423 35.2303009 0.0
579 1 1.85423 33.3759995 1.85423
580 1 0.0 35.2303009 1.85423
581 1 3.7084501 33.3759995 0.0
582 1 5.5626798 35.2303009 0.0
583 1 5.5626798 33.3759995 1.85423
584 1 3.7084501 35.2303009 1.85423
585 1 7.4169002 33.3759995 0.0
586 1 9.2711201 35.2303009 0.0
587 1 9.2711201 33.3759995 1.85423
588 1 7.4169002 35.2303009 1.85423
589 1 11.1253996 33.3759995 0.0
590 1 12.9796 35.2303009 0.0
591 1 12.9796 33.3759995 1.85423
592 1 11.1253996 35.2303009 1.85423
593 1 14.8338003 33.3759995 0.0
594 1 16.6879998 35.2303009 0.0
595 1 16.6879998 33.3759995 1.85423
596 1 14.8338003 35.2303009 1.85423
597 1 18.5422001 33.3759995 0.0
598 1 20.3964996 35.2303009 0.0
599 1 20.3964996 33.3759995 1.85423
600 1 18.5422001 35.2303009 1.85423
601 1 22.2507 33.3759995 0.0
602 1 24.1049004 35.2303009 0.0
603 1 24.1049004 33.3759995 1.85423
604 1 22.2507 35.2303009 1.85423
605 1 25.9592 33.3759995 0.0
606 1 27.8134003 35.2303009 0.0
607 1 27.8134003 33.3759995 1.85423
608 1 25.9592 35.2303009 1.85423
609 1 29.6676007 33.3759995 0.0
610 1 31.5217991 35.2303009 0.0
611 1 31.5217991 33.3759995 1.85423
612 1 29.6676007 35.2303009 1.85423
613 1 33.3759995 33.3759995 0.0
614 1 35.2303009 35.2303009 0.0
615 1 35.2303009 33.3759995 1.85423
616 1 33.3759995 35.2303009 1.85423
617 1 37.0844994 33.3759995 0.0
618 1 38.9387016 35.2303009 0.0
619 1 38.9387016 33.3759995 1.85423
620 1 37.0844994 35.2303009 1.85423
621 1 40.7929001 33.3759995 0.0
622 1 42.6472016 35.2303009 0.0
623 1 42.6472016 33.3759995 1.85423
624 1 40.7929001 35.2303009 1.85423
625 1 44.5014 33.3759995 0.0
626 1 46.3555985 35.2303009 0.0
627 1 46.3555985 33.3759995 1.85423
628 1 44.5014 35.2303009 1.85423
629 1 48.2098999 33.3759995 0.0
630 1 50.0640984 35.2303009 0.0
631 1 50.0640984 33.3759995 1.85423
632 1 48.2098999 35.2303009 1.85423
633 1 51.9183006 33.3759995 0.0
634 1 53.7724991 35.2303009 0.0
635 1 53.7724991 33.3759995 1.85423
636 1 51.9183006 35.2303009 1.85423
637 1 55.6268006 33.3759995 0.0
638 1 57.480999 35.2303009 0.0
639 1 57.480999 33.3759995 1.85423
640 1 55.6268006 35.2303009 1.85423
641 1 0.0 37.0844994 0.0
642 1 1.85423 38.9387016 0.0
643 1 1.85423 37.0844994 1.85423
644 1 0.0 38.9387016 1.85423
645 1 3.7084501 37.0844994 0.0
646 1 5.5626798 38.9387016 0.0
647 1 5.5626798 37.0844994 1.85423
648 1 3.7084501 38.9387016 1.85423
649 1 7.4169002 37.0844994 0.0
650 1 9.2711201 38.9387016 0.0
651 1 9.2711201 37.0844994 1.85423
652 1 7.4169002 38.9387016 1.85423
653 1 11.1253996 37.0844994 0.0
654 1 12.9796 38.9387016 0.0
655 1 12.9796 37.0844994 1.85423
656 1 11.1253996 38.9387016 1.85423
657 1 14.8338003 37.0844994 0.0
658 1 16.6879998 38.9387016 0.0
659 1 16.6879998 37.0844994 1.85423
660 1 14.8338003 38.9387016 1.85423
661 1 18.5422001 37.0844994 0.0
662 1 20.3964996 38.9387016 0.0
663 1 20.3964996 37.0844994 1.85423
664 1 18.5422001 38.9387016 1.85423
665 1 22.2507 37.0844994 0.0
666 1 24.1049004 38.9387016 0.0
667 1 24.1049004 37.0844994 1.85423
668 1 22.2507 38.9387016 1.85423
669 1 25.9592 37.0844994 0.0
670 1 27.8134003 38.9387016 0.0
671 1 27.8134003 37.0844994 1.85423
672 1 25.9592 38.9387016 1.85423
673 1 29.6676007 37.0844994 0.0
674 1 31.5217991 38.9387016 0.0
675 1 31.5217991 37.0844994 1.85423
676 1 29.6676007 38.9387016 1.85423
677 1 33.3759995 37.0844994 0.0
678 1 35.2303009 38.9387016 0.0
679 1 35.2303009 37.0844994 1.85423
680 1 33.3759995 38.9387016 1.85423
681 1 37.0844994 37.0844994 0.0
682 1 38.9387016 38.9387016 0.0
683 1 38.9387016 37.0844994 1.85423
684 1 37.0844994 38.9387016 1.85423
685 1 40.7929001 37.0844994 0.0
686 1 42.6472016 38.9387016 0.0
687 1 42.6472016 37.0844994 1.85423
688 1 40.7929001 38.9387016 1.85423
689 1 44.5014 37.0844994 0.0
690 1 46.3555985 38.9387016 0.0
691 1 46.3555985 37.0844994 1.85423
692 1 44.5014 38.9387016 1.85423
693 1 48.2098999 37.0844994 0.0
694 1 50.0640984 38.9387016 0.0
695 1 50.0640984 37.0844994 1.85423
696 1 48.2098999 38.9387016 1.85423
697 1 51.9183006 37.0844994 0.0
698 1 53.7724991 38.9387016 0.0
699 1 53.7724991 37.0844994 1.85423
700 1 51.9183006 38.9387016 1.85423
701 1 55.6268006 37.0844994 0.0
702 1 57.480999 38.9387016 0.0
703 1 57.480999 37.0844994 1.85423
704 1 55.6268006 38.9387016 1.85423
705 1 0.0 40.7929001 0.0
706 1 1.85423 42.6472016 0.0
707 1 1.85423 40.7929001 1.85423
708 1 0.0 42.6472016 1.85423
709 1 3.7084501 40.7929001 0.0
710 1 5.5626798 42.6472016 0.0
711 1 5.5626798 40.7929001 1.85423
712 1 3.7084501 42.6472016 1.85423
713 1 7.4169002 40.7929001 0.0
714 1 9.2711201 42.6472016 0.0
715 1 9.2711201 40.7929001 1.85423
716 1 7.4169002 42.6472016 1.85423
717 1 11.1253996 40.7929001 0.0
718 1 12.9796 42.6472016 0.0
719 1 12.9796 40.7929001 1.85423
720 1 11.1253996 42.6472016 1.85423
721 1 14.8338003 40.7929001 0.0
722 1 16.6879998 42.6472016 0.0
723 1 16.6879998 40.7929001 1.85423
724 1 14.8338003 42.6472016 1.85423
725 1 18.5422001 40.7929001 0.0
726 1 20.3964996 42.6472016 0.0
727 1 20.3964996 40.7929001 1.85423
728 1 18.5422001 42.6472016 1.85423
729 1 22.2507 40.7929001 0.0
730 1 24.1049004 42.6472016 0.0
731 1 24.1049004 40.7929001 1.85423
732 1 22.2507 42.6472016 1.85423
733 1 25.9592 40.7929001 0.0
734 1 27.8134003 42.6472016 0.0
735 1 27.8134003 40.7929001 1.85423
736 1 25.9592 42.6472016 1.85423
737 1 29.6676007 40.7929001 0.0
738 1 31.5217991 42.6472016 0.0
739 1 31.5217991 40.7929001 1.85423
740 1 29.6676007 42.6472016 1.85423
741 1 33.3759995 40.7929001 0.0
742 1 35.2303009 42.6472016 0.0
743 1 35.2303009 40.7929001 1.85423
744 1 33.3759995 42.6472016 1.85423
745 1 37.0844994 40.7929001 0.0
746 1 38.9387016 42.6472016 0.0
747 1 38.9387016 40.7929001 1.85423
748 1 37.0844994 42.6472016 1.85423
749 1 40.7929001 40.7929001 0.0
750 1 42.6472016 42.6472016 0.0
751 1 42.6472016 40.7929001 1.85423
752 1 40.7929001 42.6472016 1.85423
753 1 44.5014 40.7929001 0.0
754 1 46.3555985 42.6472016 0.0
755 1 46.3555985 40.7929001 1.85423
756 1 44.5014 42.6472016 1.85423
757 1 48.2098999 40.7929001 0.0
758 1 50.0640984 42.6472016 0.0
759 1 50.0640984 40.7929001 1.85423
760 1 48.2098999 42.6472016 1.85423
761 1 51.9183006 40.7929001 0.0
762 1 53.7724991 42.6472016 0.0
763 1 53.7724991 40.7929001 1.85423
764 1 51.9183006 42.6472016 1.85423
765 1 55.6268006 40.7929001 0.0
766 1 57.480999 42.6472016 0.0
767 1 57.480999 40.7929001 1.85423
768 1 55.6268006 42.6472016 1.85423
769 1 0.0 44.5014 0.0
770 1 1.85423 46.3555985 0.0
771 1 1.85423 44.5014 1.85423
772 1 0.0 46.3555985 1.85423
773 1 3.7084501 44.5014 0.0
774 1 5.5626798 46.3555985 0.0
775 1 5.5626798 44.5014 1.85423
776 1 3.7084501 46.3555985 1.85423
777 1 7.4169002 44.5014 0.0
778 1 9.2711201 46.3555985 0.0
779 1 9.2711201 44.5014 1.85423
780 1 7.4169002 46.3555985 1.85423
781 1 11.1253996 44.5014 0.0
782 1 12.9796 46.3555985 0.0
783 1 12.9796 44.5014 1.85423
784 1 11.1253996 46.3555985 1.85423
785 1 14.8338003 44.5014 0.0
786 1 16.6879998 46.3555985 0.0
787 1 16.6879998 44.5014 1.85423
788 1 14.8338003 46.3555985 1.85423
789 1 18.5422001 44.5014 0.0
790 1 20.3964996 46.3555985 0.0
791 1 20.3964996 44.5014 1.85423
792 1 18.5422001 46.3555985 1.85423
793 1 22.2507 44.5014 0.0
794 1 24.1049004 46.3555985 0.0
795 1 24.1049004 44.5014 1.85423
796 1 22.2507 46.3555985 1.85423
797 1 25.9592 44.5014 0.0
798 1 27.8134003 46.3555985 0.0
799 1 27.8134003 44.5014 1.85423
800 1 25.9592 46.3555985 1.85423
801 1 29.6676007 44.5014 0.0
802 1 31.5217991 46.3555985 0.0
803 1 31.5217991 44.5014 1.85423
804 1 29.6676007 46.3555985 1.85423
805 1 33.3759995 44.5014 0.0
806 1 35.2303009 46.3555985 0.0
807 1 35.2303009 44.5014 1.85423
808 1 33.3759995 46.3555985 1.85423
809 1 37.0844994 44.5014 0.0
810 1 38.9387016 46.3555985 0.0
811 1 38.9387016 44.5014 1.85423
812 1 37.0844994 46.3555985 1.85423
813 1 40.7929001 44.5014 0.0
814 1 42.6472016 46.3555985 0.0
815 1 42.6472016 44.5014 1.85423
816 1 40.7929001 46.3555985 1.85423
817 1 44.5014 44.5014 0.0
818 1 46.3555985 46.3555985 0.0
819 1 46.3555985 44.5014 1.85423
820 1 44.5014 46.3555985 1.85423
821 1 48.2098999 44.5014 0.0
822 1 50.0640984 46.3555985 0.0
823 1 50.0640984 44.5014 1.85423
824 1 48.2098999 46.3555985 1.85423
825 1 51.9183006 44.5014 0.0
826 1 53.7724991 46.3555985 0.0
827 1 53.7724991 44.5014 1.85423
828 1 51.9183006 46.3555985 1.85423
829 1 55.6268006 44.5014 0.0
830 1 57.480999 46.3555985 0.0
831 1 57.480999 44.5014 1.85423
832 1 55.6268006 46.3555985 1.85423
833 1 0.0 48.2098999 0.0
834 1 1.85423 50.0640984 0.0
835 1 1.85423 48.2098999 1.85423
836 1 0.0 50.0640984 1.85423
837 1 3.7084501 48.2098999 0.0
838 1 5.5626798 50.0640984 0.0
839 1 5.5626798 48.2098999 1.85423
840 1 3.7084501 50.0640984 1.85423
841 1 7.4169002 48.2098999 0.0
842 1 9.2711201 50.0640984 0.0
843 1 9.2711201 48.2098999 1.85423
844 1 7.4169002 50.0640984 1.85423
845 1 11.1253996 48.2098999 0.0
846 1 12.9796 50.0640984 0.0
847 1 12.9796 48.2098999 1.85423
848 1 11.1253996 50.0640984 1.85423
849 1 14.8338003 48.2098999 0.0
850 1 16.6879998 50.0640984 0.0
851 1 16.6879998 48.2098999 1.85423
852 1 14.8338003 50.0640984 1.85423
853 1 18.5422001 48.2098999 0.0
854 1 20.3964996 50.0640984 0.0
855 1 20.3964996 48.2098999 1.85423
856 1 18.5422001 50.0640984 1.85423
857 1 22.2507 48.2098999 0.0
858 1 24.1049004 50.0640984 0.0
859 1 24.1049004 48.2098999 1.85423
860 1 22.2507 50.0640984 1.85423
861 1 25.9592 48.2098999 0.0
862 1 27.8134003 50.0640984 0.0
863 1 27.8134003 48.2098999 1.85423
864 1 25.9592 50.0640984 1.85423
865 1 29.6676007 48.2098999 0.0
866 1 31.5217991 50.0640984 0.0
867 1 31.5217991 48.2098999 1.85423
868 1 29.6676007 50.0640984 1.85423
869 1 33.3759995 48.2098999 0.0
870 1 35.2303009 50.0640984 0.0
871 1 35.2303009 48.2098999 1.85423
872 1 33.3759995 50.0640984 1.85423
873 1 37.0844994 48.2098999 0.0
874 1 38.9387016 50.0640984 0.0
875 1 38.9387016 48.2098999 1.85423
876 1 37.0844994 50.0640984 1.85423
877 1 40.7929001 48.2098999 0.0
878 1 42.6472016 50.0640984 0.0
879 1 42.6472016 48.2098999 1.85423
880 1 40.7929001 50.0640984 1.85423
881 1 44.5014 48.2098999 0.0
882 1 46.3555985 50.0640984 0.0
883 1 46.3555985 48.2098999 1.85423
884 1 44.5014 50.0640984 1.85423
885 1 48.2098999 48.2098999 0.0
886 1 50.0640984 50.0640984 0.0
887 1 50.0640984 48.2098999 1.85423
888 1 48.2098999 50.0640984 1.85423
889 1 51.9183006 48.2098999 0.0
890 1 53.7724991 50.0640984 0.0
891 1 53.7724991 48.2098999 1.85423
892 1 51.9183006 50.0640984 1.85423
893 1 55.6268006 48.2098999 0.0
894 1 57.480999 50.0640984 0.0
895 1 57.480999 48.2098999 1.85423
896 1 55.6268006 50.0640984 1.85423
897 1 0.0 51.9183006 0.0
898 1 1.85423 53.7724991 0.0
899 1 1.85423 51.9183006 1.85423
900 1 0.0 53.7724991 1.85423
901 1 3.7084501 51.9183006 0.0
902 1 5.5626798 53.7724991 0.0
903 1 5.5626798 51.9183006 1.85423
904 1 3.7084501 53.7724991 1.85423
905 1 7.4169002 51.9183006 0.0
906 1 9.2711201 53.7724991 0.0
907 1 9.2711201 51.9183006 1.85423
908 1 7.4169002 53.7724991 1.85423
909 1 11.1253996 51.9183006 0.0
910 1 12.9796 53.7724991 0.0
911 1 12.9796 51.9183006 1.85423
912 1 11.1253996 53.7724991 1.85423
913 1 14.8338003 51.9183006 0.0
914 1 16.6879998 53.7724991 0.0
915 1 16.6879998 51.9183006 1.85423
916 1 14.8338003 53.7724991 1.85423
917 1 18.5422001 51.9183006 0.0
918 1 20.3964996 53.7724991 0.0
919 1 20.3964996 51.9183006 1.85423
920 1 18.5422001 53.7724991 1.85423
921 1 22.2507 51.9183006 0.0
922 1 24.1049004 53.7724991 0.0
923 1 24.1049004 51.9183006 1.85423
924 1 22.2507 53.7724991 1.85423
925 1 25.9592 51.9183006 0.0
926 1 27.8134003 53.7724991 0.0
927 1 27.8134003 51.9183006 1.85423
928 1 25.9592 53.7724991 1.85423
929 1 29.6676007 51.9183006 0.0