ITEM: TIMESTEP
0
ITEM: NUMBER OF ATOMS
38
ITEM: BOX BOUNDS pp ff ff
0.0 2.507675339
0.0 0.0
0.0 0.0
ITEM: ATOMS id type x y z 
1	H	-0.064185825	0.086870176	1.090456566
2	H	-0.010523918	1.010453702	-0.421626618
3	C	0	0	0
4	H	0.285468699	-4.901197221	-0.009236342
5	O	0.536936395	-2.510629019	1.086787164
6	H	1.188356778	-5.361321265	-1.454432578
7	H	1.243176858	-0.850380793	-1.522490478
8	C	1.249550558	-5.279490484	-0.363746609
9	C	1.25390251	-0.759297163	-0.429250367
10	C	1.268558645	-2.165052483	0.16580982
11	H	1.38308017	-6.285691554	0.047637741
12	N	2.205389567	-3.002604771	-0.40687316
13	C	2.401155624	-4.368375862	0.0596904
14	H	2.435594846	-4.333717416	1.1553099
15	H	2.720622542	-2.682684068	-1.216684554
16	H	3.708160575	-5.046608881	-1.545034613
17	C	3.727611043	-4.919589248	-0.456569755
18	H	3.945074324	-5.893350807	-0.005377966
19	H	4.554397372	-4.241809752	-0.218634815
20	H	2.443489175	-0.086870176	-1.090456566
21	H	2.497151083	-1.010453702	0.421626618
22	C	2.507675	0	0
23	H	2.793143699	4.901197221	0.009236342
24	O	3.044611395	2.510629019	-1.086787164
25	H	3.696031778	5.361321265	1.454432578
26	H	3.750851858	0.850380793	1.522490478
27	C	3.757225558	5.279490484	0.363746609
28	C	3.76157751	0.759297163	0.429250367
29	C	3.776233645	2.165052483	-0.16580982
30	H	3.89075517	6.285691554	-0.047637741
31	N	4.713064567	3.002604771	0.40687316
32	C	4.908830624	4.368375862	-0.0596904
33	H	4.943269846	4.333717416	-1.1553099
34	H	5.228297542	2.682684068	1.216684554
35	H	6.215835575	5.046608881	1.545034613
36	C	6.235286043	4.919589248	0.456569755
37	H	6.452749324	5.893350807	0.005377966
38	H	7.062072372	4.241809752	0.218634815
