ITEM: TIMESTEP
0
ITEM: NUMBER OF ATOMS
57
ITEM: BOX BOUNDS pp ff ff
0.0 7.523026017
0.0 0.0
0.0 0.0
ITEM: ATOMS id type x y z 
1	H	-0.064185825	0.086870176	1.090456566
2	H	-0.010523918	1.010453702	-0.421626618
3	C	0	0	0
4	H	0.285468699	-4.901197221	-0.009236342
5	O	0.536936395	-2.510629019	1.086787164
6	H	1.188356778	-5.361321265	-1.454432578
7	H	1.243176858	-0.850380793	-1.522490478
8	C	1.249550558	-5.279490484	-0.363746609
9	C	1.25390251	-0.759297163	-0.429250367
10	C	1.268558645	-2.165052483	0.16580982
11	H	1.38308017	-6.285691554	0.047637741
12	N	2.205389567	-3.002604771	-0.40687316
13	C	2.401155624	-4.368375862	0.0596904
14	H	2.435594846	-4.333717416	1.1553099
15	H	2.720622542	-2.682684068	-1.216684554
16	H	3.708160575	-5.046608881	-1.545034613
17	C	3.727611043	-4.919589248	-0.456569755
18	H	3.945074324	-5.893350807	-0.005377966
19	H	4.554397372	-4.241809752	-0.218634815
20	H	2.443489175	-0.987798176	-0.469996504
21	H	2.497151083	-0.140087489	1.085891884
22	C	2.507675	0	0
23	H	2.793143699	2.458597517	-4.239943132
24	O	3.044611395	0.314129217	-2.717662091
25	H	3.696031778	3.940236193	-3.915824124
26	H	3.750851858	1.743705828	0.024793869
27	C	3.757225558	2.954759045	-4.390299574
28	C	3.76157751	0.751390304	-0.442945448
29	C	3.776233645	0.938930725	-1.957895361
30	H	3.89075517	3.101590283	-5.467387437
31	N	4.713064567	1.853664878	-2.396895429
32	C	4.908830624	2.132494528	-3.81296967
33	H	4.943269846	1.166330985	-4.330764325
34	H	5.228297542	2.395021766	-1.714930276
35	H	6.215835575	3.861343665	-3.597974188
36	C	6.235286043	2.85519563	-4.032204387
37	H	6.452749324	2.951332859	-5.101102529
38	H	7.062072372	2.31024818	-3.564197595
39	H	4.951164175	0.900928	-0.620460062
40	H	5.004826083	-0.870366213	-0.664265267
41	C	5.01535	0	0
42	H	5.300818699	2.442599704	4.249179473
43	O	5.552286395	2.196499801	1.630874928
44	H	6.203706778	1.421085072	5.370256702
45	H	6.258526858	-0.893325034	1.497696609
46	C	6.264900558	2.324731438	4.754046182
47	C	6.26925251	0.007906859	0.872195815
48	C	6.283908645	1.226121758	1.792085541
49	H	6.39843017	3.184101271	5.419749696
50	N	7.220739567	1.148939893	2.803768589
51	C	7.416505624	2.235881334	3.75327927
52	H	7.450944846	3.167386431	3.175454425
53	H	7.735972542	0.287662302	2.93161483
54	H	8.723510575	1.185265216	5.143008801
55	C	8.742961043	2.064393618	4.488774142
56	H	8.960424324	2.942017948	5.106480495
57	H	9.569747372	1.931561572	3.78283241
